|===============================================================================
|
|  DFTB+ release 18.2
|
|  Copyright (C) 2018  DFTB+ developers group
|
|===============================================================================
|
|  When publishing results obtained with DFTB+, please cite the following
|  reference:
|
|  * B. Aradi, B. Hourahine and T. Frauenheim,
|    DFTB+, a Sparse Matrix-Based Implementation of the DFTB Method,
|    J. Phys. Chem. A, 111 5678 (2007).  [doi: 10.1021/jp070186p]
|
|  You should also cite additional publications crediting the parametrization
|  data you use. Please consult the documentation of the SK-files for the
|  references.
|
|===============================================================================


***  Parsing and initializing

Parser version: 6

Interpreting input file 'dftb_in.hsd'
--------------------------------------------------------------------------------
Reading SK-files:
  /home/mtolladay/pkgs/slako/3ob/3ob-3-1/O-O.skf
  /home/mtolladay/pkgs/slako/3ob/3ob-3-1/O-H.skf
  /home/mtolladay/pkgs/slako/3ob/3ob-3-1/O-C.skf
  /home/mtolladay/pkgs/slako/3ob/3ob-3-1/O-Zn.skf
  /home/mtolladay/pkgs/slako/3ob/3ob-3-1/H-H.skf
  /home/mtolladay/pkgs/slako/3ob/3ob-3-1/H-C.skf
  /home/mtolladay/pkgs/slako/3ob/3ob-3-1/H-Zn.skf
  /home/mtolladay/pkgs/slako/3ob/3ob-3-1/C-C.skf
  /home/mtolladay/pkgs/slako/3ob/3ob-3-1/C-Zn.skf
  /home/mtolladay/pkgs/slako/3ob/3ob-3-1/Zn-Zn.skf
Done.


Processed input in HSD format written to 'dftb_pin.hsd'

Starting initialization...
--------------------------------------------------------------------------------
MPI processes:               1
OMP: Warning #80: OMP_NUM_THREADS="0": value too small.
OMP: Info #104: OMP_NUM_THREADS value "1" will be used.
OpenMP threads:              1
BLACS orbital grid size:     1 x 1
BLACS atom grid size:        1 x 1
Chosen random seed:                38310992
Mode:                        Static calculation
Self consistent charges:     Yes
SCC-tolerance:                 0.100000E-09
Max. scc iterations:                   1000
Spin polarisation:           No
Nr. of up electrons:          1098.000000
Nr. of down electrons:        1098.000000
Periodic boundaries:         Yes
Diagonalizer:                Divide and Conquer
Mixer:                       Broyden mixer
Mixing parameter:                  0.200000
Maximal SCC-cycles:                    1000
Nr. of chrg. vec. in memory:              0
Force evaluation method:     Traditional                                                                                                                                                                                             
Electronic temperature:        0.950045E-03
Initial charges:             Set automatically (system chrg:   0.000E+00)
Included shells:             O:  s, p
                             H:  s
                             C:  s, p
                            Zn:  s, p, d
K-points and weights:           1:  0.000000  0.000000  0.000000     1.000000

K-points in absolute space:     1:  0.000000  0.000000  0.000000

Using DFT-D3 dispersion corrections
Full 3rd order correction    Yes
H-bond correction:           H5
H-H repulsion correction:    H5
Extra options:
                             Mulliken analysis
                             Force calculation
Force type                   original

--------------------------------------------------------------------------------

***  Geometry step: 0

 iSCC Total electronic   Diff electronic      SCC error    
    1   -0.97875545E+03    0.00000000E+00    0.93354012E+00
    2   -0.98083177E+03   -0.20763148E+01    0.76966307E+00
    3   -0.97855170E+03    0.22800684E+01    0.45414374E+00
    4   -0.97958865E+03   -0.10369514E+01    0.91426804E+00
    5   -0.98216878E+03   -0.25801344E+01    0.40790401E+00
    6   -0.97945641E+03    0.27123701E+01    0.96187491E+00
    7   -0.97917577E+03    0.28064442E+00    0.78460660E+00
    8   -0.98089553E+03   -0.17197582E+01    0.89500570E+00
    9   -0.98158721E+03   -0.69167877E+00    0.49088554E+00
   10   -0.98048541E+03    0.11017927E+01    0.58956724E+00
   11   -0.98135988E+03   -0.87446499E+00    0.41455643E+00
   12   -0.98119247E+03    0.16740556E+00    0.33415202E+00
   13   -0.98142842E+03   -0.23594613E+00    0.26218936E+00
   14   -0.98251211E+03   -0.10836924E+01    0.23349888E+00
   15   -0.98211577E+03    0.39634197E+00    0.28296581E+00
   16   -0.98206796E+03    0.47813850E-01    0.44799429E+00
   17   -0.98185691E+03    0.21104277E+00    0.48460376E+00
   18   -0.98246065E+03   -0.60373975E+00    0.23020932E+00
   19   -0.98276809E+03   -0.30744015E+00    0.23015743E+00
   20   -0.98239376E+03    0.37432832E+00    0.20844197E+00
>> Charges saved for restart in charges.bin
   21   -0.98263964E+03   -0.24587435E+00    0.68151591E+00
   22   -0.98272735E+03   -0.87710623E-01    0.35468570E+00
   23   -0.98274121E+03   -0.13858254E-01    0.41035296E+00
   24   -0.98283482E+03   -0.93607396E-01    0.17810967E+00
   25   -0.98272328E+03    0.11153442E+00    0.24127972E+00
   26   -0.98284928E+03   -0.12600214E+00    0.14955329E+00
   27   -0.98281386E+03    0.35425414E-01    0.25555074E+00
   28   -0.98276506E+03    0.48801705E-01    0.33604699E+00
   29   -0.98283978E+03   -0.74728441E-01    0.20773614E+00
   30   -0.98289568E+03   -0.55900565E-01    0.15120793E+00
   31   -0.98287280E+03    0.22884885E-01    0.16611762E+00
   32   -0.98289812E+03   -0.25320976E-01    0.13006743E+00
   33   -0.98289990E+03   -0.17792217E-02    0.53944920E-01
   34   -0.98290707E+03   -0.71722126E-02    0.44819099E-01
   35   -0.98290380E+03    0.32730831E-02    0.95879832E-01
   36   -0.98291408E+03   -0.10278301E-01    0.56856324E-01
   37   -0.98291150E+03    0.25733219E-02    0.75467028E-01
   38   -0.98291876E+03   -0.72542658E-02    0.42037598E-01
   39   -0.98291923E+03   -0.46862715E-03    0.37178080E-01
   40   -0.98292043E+03   -0.11993785E-02    0.30231926E-01
>> Charges saved for restart in charges.bin
   41   -0.98291956E+03    0.86598775E-03    0.40987263E-01
   42   -0.98292125E+03   -0.16875601E-02    0.30896801E-01
   43   -0.98292107E+03    0.17780432E-03    0.34264000E-01
   44   -0.98292112E+03   -0.54307042E-04    0.30935321E-01
   45   -0.98292137E+03   -0.24722454E-03    0.28355234E-01
   46   -0.98292269E+03   -0.13146432E-02    0.86737157E-02
   47   -0.98292271E+03   -0.28491694E-04    0.90995940E-02
   48   -0.98292287E+03   -0.15988805E-03    0.84615007E-02
   49   -0.98292290E+03   -0.29941861E-04    0.84789457E-02
   50   -0.98292306E+03   -0.15788795E-03    0.78991875E-02
   51   -0.98292309E+03   -0.25328054E-04    0.64797374E-02
   52   -0.98292311E+03   -0.24293542E-04    0.50770707E-02
   53   -0.98292312E+03   -0.43656288E-05    0.34196746E-02
   54   -0.98292312E+03   -0.12066157E-05    0.23321242E-02
   55   -0.98292311E+03    0.46497656E-05    0.35585024E-02
   56   -0.98292311E+03    0.35129596E-05    0.31668445E-02
   57   -0.98292311E+03   -0.20103952E-05    0.22843735E-02
   58   -0.98292313E+03   -0.15390523E-04    0.11395742E-02
   59   -0.98292313E+03   -0.42255529E-05    0.57159953E-03
   60   -0.98292313E+03   -0.24334103E-05    0.23996866E-03
>> Charges saved for restart in charges.bin
   61   -0.98292313E+03    0.84796432E-06    0.15773907E-03
   62   -0.98292313E+03    0.29437746E-05    0.15605286E-03
   63   -0.98292313E+03   -0.79158099E-07    0.74179711E-04
   64   -0.98292313E+03   -0.55076578E-06    0.72277117E-04
   65   -0.98292313E+03    0.44255012E-06    0.23623924E-04
   66   -0.98292313E+03    0.15716796E-06    0.17803508E-04
   67   -0.98292313E+03   -0.24788233E-06    0.11602977E-04
   68   -0.98292313E+03   -0.25254394E-07    0.40083305E-05
   69   -0.98292313E+03   -0.69279622E-07    0.11651056E-05
   70   -0.98292313E+03    0.60309731E-08    0.13465412E-05
   71   -0.98292313E+03    0.51484221E-08    0.13038599E-05
   72   -0.98292313E+03   -0.68674808E-08    0.44370893E-06
   73   -0.98292313E+03    0.15991191E-08    0.31554821E-06
   74   -0.98292313E+03   -0.33226115E-08    0.10762018E-06
   75   -0.98292313E+03    0.24249402E-09    0.77144180E-07
   76   -0.98292313E+03   -0.99703357E-10    0.45709628E-07
   77   -0.98292313E+03   -0.45361048E-09    0.19647045E-07
   78   -0.98292313E+03   -0.11721113E-09    0.54182019E-08
   79   -0.98292313E+03   -0.45588422E-10    0.50304672E-08
   80   -0.98292313E+03   -0.53773874E-10    0.24461246E-08
>> Charges saved for restart in charges.bin
   81   -0.98292313E+03   -0.98907549E-11    0.25531706E-08
   82   -0.98292313E+03    0.48885340E-11    0.15349158E-08
   83   -0.98292313E+03   -0.11368684E-10    0.64753491E-09
   84   -0.98292313E+03   -0.28421709E-11    0.14162138E-09
   85   -0.98292313E+03   -0.79580786E-12    0.10700640E-09
   86   -0.98292313E+03    0.11368684E-11    0.27859492E-10
>> Charges saved for restart in charges.bin

Total Energy:                     -934.9298702744 H       -25440.7362 eV
Total Mermin free energy:         -934.9487308774 H       -25441.2494  eV
Volume:                              0.176279E+06 au^3   0.261219E+05 A^3
Pressure:                            0.507793E-03 au     0.149398E+11 Pa
