|===============================================================================
|
|  DFTB+ release 18.2
|
|  Copyright (C) 2018  DFTB+ developers group
|
|===============================================================================
|
|  When publishing results obtained with DFTB+, please cite the following
|  reference:
|
|  * B. Aradi, B. Hourahine and T. Frauenheim,
|    DFTB+, a Sparse Matrix-Based Implementation of the DFTB Method,
|    J. Phys. Chem. A, 111 5678 (2007).  [doi: 10.1021/jp070186p]
|
|  You should also cite additional publications crediting the parametrization
|  data you use. Please consult the documentation of the SK-files for the
|  references.
|
|===============================================================================


***  Parsing and initializing

Parser version: 6

Interpreting input file 'dftb_in.hsd'
--------------------------------------------------------------------------------
Reading SK-files:
  /home/mtolladay/pkgs/slako/3ob/3ob-3-1/O-O.skf
  /home/mtolladay/pkgs/slako/3ob/3ob-3-1/O-H.skf
  /home/mtolladay/pkgs/slako/3ob/3ob-3-1/O-Zn.skf
  /home/mtolladay/pkgs/slako/3ob/3ob-3-1/O-C.skf
  /home/mtolladay/pkgs/slako/3ob/3ob-3-1/H-H.skf
  /home/mtolladay/pkgs/slako/3ob/3ob-3-1/H-Zn.skf
  /home/mtolladay/pkgs/slako/3ob/3ob-3-1/H-C.skf
  /home/mtolladay/pkgs/slako/3ob/3ob-3-1/Zn-Zn.skf
  /home/mtolladay/pkgs/slako/3ob/3ob-3-1/Zn-C.skf
  /home/mtolladay/pkgs/slako/3ob/3ob-3-1/C-C.skf
Done.
WARNING!
-> The following 2 node(s) have been ignored by the parser:
(1)
Path: dftb_in/Hamiltonian/DFTB/HubbardDerivs/N
Line: 31-31 (File: dftb_in.hsd)
(2)
Path: dftb_in/Hamiltonian/DFTB/MaxAngularMomentum/N
Line: 43-43 (File: dftb_in.hsd)



Processed input in HSD format written to 'dftb_pin.hsd'

Starting initialization...
--------------------------------------------------------------------------------
MPI processes:               1
OpenMP threads:              1
BLACS orbital grid size:     1 x 1
BLACS atom grid size:        1 x 1
Chosen random seed:                11783648
Mode:                        Static calculation
Self consistent charges:     Yes
SCC-tolerance:                 0.100000E-09
Max. scc iterations:                  10000
Spin polarisation:           No
Nr. of up electrons:          1272.000000
Nr. of down electrons:        1272.000000
Periodic boundaries:         Yes
Diagonalizer:                Divide and Conquer
Mixer:                       Broyden mixer
Mixing parameter:                  0.200000
Maximal SCC-cycles:                   10000
Nr. of chrg. vec. in memory:              0
Force evaluation method:     Traditional                                                                                                                                                                                             
Electronic temperature:        0.100000E-07
Initial charges:             Set automatically (system chrg:   0.000E+00)
Included shells:             O:  s, p
                             H:  s
                            Zn:  s, p, d
                             C:  s, p
K-points and weights:           1:  0.000000  0.000000  0.000000     1.000000

K-points in absolute space:     1:  0.000000  0.000000  0.000000

Using DFT-D3 dispersion corrections
Full 3rd order correction    Yes
H-bond correction:           H5
H-H repulsion correction:    H5
Extra options:
                             Mulliken analysis
                             Force calculation
Force type                   original

--------------------------------------------------------------------------------

***  Geometry step: 0

 iSCC Total electronic   Diff electronic      SCC error    
    1   -0.11521840E+04    0.00000000E+00    0.95504142E+00
    2   -0.11525477E+04   -0.36365656E+00    0.69455965E+00
    3   -0.11528280E+04   -0.28025726E+00    0.10351509E+00
    4   -0.11528361E+04   -0.81056387E-02    0.80386954E-01
    5   -0.11528517E+04   -0.15631098E-01    0.17556327E-01
    6   -0.11528520E+04   -0.28123938E-03    0.63266302E-02
    7   -0.11528520E+04   -0.12162324E-04    0.12990841E-02
    8   -0.11528520E+04   -0.42357181E-05    0.18952403E-03
    9   -0.11528520E+04   -0.31018158E-06    0.16221640E-03
   10   -0.11528520E+04   -0.13171530E-07    0.58986993E-04
   11   -0.11528520E+04   -0.49469691E-08    0.63248381E-05
   12   -0.11528520E+04   -0.37744030E-10    0.24778285E-05
   13   -0.11528520E+04   -0.15234036E-10    0.34106118E-06
   14   -0.11528520E+04   -0.31832315E-11    0.70161009E-07
   15   -0.11528520E+04   -0.90949470E-12    0.42641155E-07
   16   -0.11528520E+04    0.00000000E+00    0.57643383E-08
   17   -0.11528520E+04    0.68212103E-12    0.76276763E-11
>> Charges saved for restart in charges.bin

Total Energy:                    -1133.0740333103 H       -30832.5132 eV
Total Mermin free energy:        -1133.0740333103 H       -30832.5132  eV
Volume:                              0.271860E+06 au^3   0.402855E+05 A^3
Pressure:                            0.718070E-04 au     0.211264E+10 Pa
