|===============================================================================
|
|  DFTB+ release 18.2
|
|  Copyright (C) 2018  DFTB+ developers group
|
|===============================================================================
|
|  When publishing results obtained with DFTB+, please cite the following
|  reference:
|
|  * B. Aradi, B. Hourahine and T. Frauenheim,
|    DFTB+, a Sparse Matrix-Based Implementation of the DFTB Method,
|    J. Phys. Chem. A, 111 5678 (2007).  [doi: 10.1021/jp070186p]
|
|  You should also cite additional publications crediting the parametrization
|  data you use. Please consult the documentation of the SK-files for the
|  references.
|
|===============================================================================


***  Parsing and initializing

Parser version: 6

Interpreting input file 'dftb_in.hsd'
--------------------------------------------------------------------------------
Reading SK-files:
  /home/mtolladay/pkgs/slako/3ob/3ob-3-1/O-O.skf
  /home/mtolladay/pkgs/slako/3ob/3ob-3-1/O-H.skf
  /home/mtolladay/pkgs/slako/3ob/3ob-3-1/O-Zn.skf
  /home/mtolladay/pkgs/slako/3ob/3ob-3-1/O-C.skf
  /home/mtolladay/pkgs/slako/3ob/3ob-3-1/H-H.skf
  /home/mtolladay/pkgs/slako/3ob/3ob-3-1/H-Zn.skf
  /home/mtolladay/pkgs/slako/3ob/3ob-3-1/H-C.skf
  /home/mtolladay/pkgs/slako/3ob/3ob-3-1/Zn-Zn.skf
  /home/mtolladay/pkgs/slako/3ob/3ob-3-1/Zn-C.skf
  /home/mtolladay/pkgs/slako/3ob/3ob-3-1/C-C.skf
Done.
WARNING!
-> The following 2 node(s) have been ignored by the parser:
(1)
Path: dftb_in/Hamiltonian/DFTB/HubbardDerivs/N
Line: 31-31 (File: dftb_in.hsd)
(2)
Path: dftb_in/Hamiltonian/DFTB/MaxAngularMomentum/N
Line: 43-43 (File: dftb_in.hsd)



Processed input in HSD format written to 'dftb_pin.hsd'

Starting initialization...
--------------------------------------------------------------------------------
MPI processes:               1
OpenMP threads:              1
BLACS orbital grid size:     1 x 1
BLACS atom grid size:        1 x 1
Chosen random seed:                11623528
Mode:                        Static calculation
Self consistent charges:     Yes
SCC-tolerance:                 0.100000E-09
Max. scc iterations:                  10000
Spin polarisation:           No
Nr. of up electrons:          1056.000000
Nr. of down electrons:        1056.000000
Periodic boundaries:         Yes
Diagonalizer:                Divide and Conquer
Mixer:                       Broyden mixer
Mixing parameter:                  0.200000
Maximal SCC-cycles:                   10000
Nr. of chrg. vec. in memory:              0
Force evaluation method:     Traditional                                                                                                                                                                                             
Electronic temperature:        0.100000E-07
Initial charges:             Set automatically (system chrg:   0.000E+00)
Included shells:             O:  s, p
                             H:  s
                            Zn:  s, p, d
                             C:  s, p
K-points and weights:           1:  0.000000  0.000000  0.000000     1.000000

K-points in absolute space:     1:  0.000000  0.000000  0.000000

Using DFT-D3 dispersion corrections
Full 3rd order correction    Yes
H-bond correction:           H5
H-H repulsion correction:    H5
Extra options:
                             Mulliken analysis
                             Force calculation
Force type                   original

--------------------------------------------------------------------------------

***  Geometry step: 0

 iSCC Total electronic   Diff electronic      SCC error    
    1   -0.96638973E+03    0.00000000E+00    0.96529592E+00
    2   -0.96676072E+03   -0.37099550E+00    0.69717152E+00
    3   -0.96705713E+03   -0.29640583E+00    0.10773140E+00
    4   -0.96706609E+03   -0.89559681E-02    0.82630114E-01
    5   -0.96708095E+03   -0.14861120E-01    0.17360441E-01
    6   -0.96708106E+03   -0.10762682E-03    0.14002721E-02
    7   -0.96708106E+03   -0.60862442E-05    0.18852328E-02
    8   -0.96708106E+03   -0.19989300E-05    0.47179853E-03
    9   -0.96708106E+03   -0.77175173E-07    0.69701852E-04
   10   -0.96708106E+03   -0.60322236E-08    0.23709638E-04
   11   -0.96708106E+03   -0.12400960E-08    0.85211074E-05
   12   -0.96708106E+03   -0.95383257E-10    0.71134690E-05
   13   -0.96708106E+03   -0.20804691E-10    0.17386321E-05
   14   -0.96708106E+03   -0.15916157E-11    0.43235235E-06
   15   -0.96708106E+03   -0.22737368E-12    0.29259073E-07
   16   -0.96708106E+03    0.56843419E-12    0.13011691E-07
   17   -0.96708106E+03    0.00000000E+00    0.42727608E-08
   18   -0.96708106E+03   -0.11368684E-12    0.95452091E-09
   19   -0.96708106E+03   -0.45474735E-12    0.54483884E-09
   20   -0.96708106E+03    0.00000000E+00    0.84961371E-10
>> Charges saved for restart in charges.bin

Total Energy:                     -948.3737993247 H       -25806.5641 eV
Total Mermin free energy:         -948.3737993247 H       -25806.5641  eV
Volume:                              0.116461E+06 au^3   0.172577E+05 A^3
Pressure:                            0.245299E-03 au     0.721694E+10 Pa
